! Hittite Microwave Corporation
! 2 Elizabeth Drive
! Chelmsford, MA 01824
! http://www.hittite.com
! Tel: 978-250-3343
! Fax: 978-250-3373
! 
! Device:      HMC963LP4
! Description: GaAs pHEMT MMIC Low Noise Amplifier
! Frequency:    6.00 -  26.50 GHz
! Package:     LP4  - 4x4 mm Quad Flatpack No-Lead (QFN) Plastic Package: 24 pin
!
! Ports:       2 RF, 3 DC
!              Pin  1 = GND
!              Pin  2 = GND
!              Pin  3 = RF In    = Port 1
!              Pin  4 = GND 
!              Pin 15 = GND
!              Pin 16 = RF Out   = Port 2
!              Pin 17 = GND
!              Pin 18 = GND
!              Pin 19 = Vdd3
!              Pin 21 = Vdd2
!              Pin 23 = Vdd1
!
! Voltages:    Vd1 = +3.50 Volts, Id1 =  11.61 mA
!              Vd2 = +3.50 Volts, Id2 =  16.16 mA
!              Vd3 = +3.50 Volts, Id3 =  20.98 mA
!
! Data:    The device was measured on evaluation board 108535-2.
!          Data was collected using a calibrated network analyzer.
!          The evaluation circuit board was modeled and simulated.  This was use
!          to removed the evaluation board circuit from the measured data.
!          The reference plane is the edge of the package pin.
!
! Misc:   Data Measured in Application 20110010 Part 1
!         De-embedding was done in Application 20110119
!
! Date Measured:  2011-04-11
! Date:           2011-11-03 MJV 
! Date:           2012-05-09 MJV Fixed the voltages labels (had all 1's)
! Note: 
!   Hittite supplies this data as a sample of measured data at the package pin for
!   for this package product.  Your particular data for this product may vary.
!   Data was taken at 25 degrees C.
!   Hittite reserves the right to change this data at anytime.
!
# GHz S MA R 50

0.1	0.98794718	9.8267148	0.00023874309	-178.55485	0.00035914568	131.26725	0.98707996	9.2736603	
0.2	0.98854632	3.3217511	0.00021992971	-27.549117	5.927042e-005	87.238283	0.9866224	2.0872869	
0.3	0.98795583	-3.2260222	0.00011545203	48.88761	4.3220322e-005	-28.98499	0.98621924	-5.1473711	
0.4	0.98763708	-9.6814006	0.0001508507	-171.26907	0.0001688405	57.869634	0.98214974	-12.083223	
0.5	0.98674686	-12.077274	0.00015477706	137.02836	0.00015136094	92.691164	0.9844888	-15.166084	
0.6	0.98595994	-14.4534	0.00015882295	82.487826	0.00012992464	31.554826	0.98334219	-18.270348	
0.7	0.98494563	-16.793538	0.00010789751	88.104951	0.00011709391	100.83135	0.98172897	-21.403406	
0.8	0.98381871	-19.129132	0.00012630419	73.07317	0.00012976101	81.96227	0.97889525	-24.64127	
0.9	0.98312842	-21.397981	0.00013492898	55.93472	0.00011963333	55.25652	0.97543902	-28.029108	
1	0.98301866	-23.672657	0.0001803212	56.943816	0.00014944263	55.266016	0.96794317	-31.711465	
1.1	0.98232918	-25.885143	0.00019114162	44.822188	0.00014805095	28.501288	0.95228842	-35.872862	
1.2	0.9817385	-28.172273	0.0004634066	26.125011	0.00018951717	2.5836113	0.91076855	-40.574731	
1.3	0.98115351	-30.405299	0.00061604998	2.0191866	0.00029030629	-8.7383134	0.81357569	-42.698266	
1.4	0.98026271	-32.667053	0.00066244809	-51.137301	0.0002143556	-61.177501	0.78796927	-36.977978	
1.5	0.97920338	-34.896774	0.00053286155	-73.655979	0.0001505826	-103.95818	0.8546625	-36.562696	
1.6	0.9784181	-37.158093	0.00040388408	-100.49977	8.1351332e-005	-79.149069	0.89748222	-39.732425	
1.7	0.97704136	-39.398567	0.00034496369	-107.7728	3.6376871e-005	-133.163	0.91652137	-43.39866	
1.8	0.97507129	-41.647328	0.00036494756	-110.68184	6.7845453e-005	-134.20794	0.92377634	-46.996173	
1.9	0.9728765	-43.908311	0.00032465213	-116.64593	0.00016225327	-125.89223	0.92516747	-50.484873	
2	0.97096552	-46.148253	0.00039897564	-114.58059	5.3473192e-005	-176.67129	0.92376848	-53.90327	
2.1	0.96844942	-48.442343	0.00040415112	-123.47027	0.00017631861	-138.52167	0.91996684	-57.330536	
2.2	0.96590138	-50.705251	0.00027939198	-100.30537	0.00016763732	-93.245875	0.91475975	-60.74549	
2.3	0.96332493	-52.981288	0.00023191614	-143.28697	0.00011472424	-104.46227	0.90769312	-64.224529	
2.4	0.96032125	-55.294084	0.00019489432	149.85893	0.00022745418	-136.91637	0.89953439	-67.772701	
2.5	0.95753491	-57.649127	0.0002632881	78.339464	0.00034779248	-154.86524	0.88993165	-71.446108	
2.6	0.95482928	-60.066303	0.00087868946	62.588404	0.00019903205	-153.1154	0.87924122	-75.231432	
2.7	0.95300803	-62.485967	0.0014786145	52.719506	0.00032938407	-154.87159	0.867600	-79.148833	
2.8	0.95139804	-64.951836	0.0027976141	44.435305	0.00033643687	-146.6454	0.85392363	-83.219181	
2.9	0.9505891	-67.415888	0.0047691174	38.770341	0.00038861795	-177.51736	0.83858541	-87.44816	
3	0.94955957	-69.976484	0.008141531	31.813415	0.00046667286	-172.96699	0.82075414	-91.855454	
3.1	0.94901583	-72.627282	0.012708496	23.743608	0.00046112316	-171.99499	0.80074169	-96.477221	
3.2	0.94888133	-75.319701	0.019519822	16.056188	0.00056258716	-179.95391	0.77707859	-101.35704	
3.3	0.95046928	-78.089659	0.029453065	6.7814909	0.00067295866	177.85489	0.74972498	-106.44444	
3.4	0.95240537	-80.933392	0.043852835	-2.1392961	0.000769881	175.2148	0.71852295	-111.72727	
3.5	0.95464751	-83.873318	0.063868963	-11.949195	0.00071899211	169.2835	0.68177458	-117.27595	
3.6	0.95757323	-86.951432	0.091270707	-22.033205	0.00075473413	159.77699	0.64021186	-123.00075	
3.7	0.96172925	-90.127757	0.12888403	-32.761961	0.00071191696	150.50214	0.59339655	-128.90364	
3.8	0.96595009	-93.476571	0.17915595	-44.018557	0.00069878348	144.93854	0.54084424	-134.91033	
3.9	0.97083787	-96.951038	0.24473165	-55.617033	0.00086944138	144.65957	0.48306027	-140.90811	
4	0.97680654	-100.65261	0.32944456	-67.457985	0.0010318242	145.51452	0.42277379	-146.84605	
4.1	0.98199693	-104.55242	0.43694344	-79.746642	0.00092248471	146.14946	0.3581952	-152.39602	
4.2	0.98855034	-108.77032	0.57268393	-92.264199	0.00097126466	133.0403	0.2913611	-157.52677	
4.3	0.99372994	-113.26586	0.74046302	-104.93907	0.0010567786	133.22303	0.22619048	-161.809	
4.4	0.99921253	-118.08845	0.94597175	-117.70505	0.0011154819	128.45645	0.16320417	-163.82707	
4.5	1.0026432	-123.23338	1.1949641	-130.62094	0.0010550964	126.03036	0.10459849	-161.00522	
4.6	1.0041802	-128.76457	1.495583	-143.62734	0.0011379146	125.63946	0.056789702	-141.50359	
4.7	1.0025314	-134.83671	1.8528694	-156.84945	0.0010960689	117.64505	0.046380628	-84.40684	
4.8	0.99733861	-141.39967	2.274443	-170.27263	0.0013342451	114.38217	0.077946966	-54.283823	
4.9	0.98682224	-148.49179	2.7677399	176.14354	0.0013736541	110.16484	0.11633787	-47.04063	
5	0.97241472	-156.13996	3.3282677	162.34225	0.0014243829	105.13765	0.15285741	-45.824716	
5.1	0.95237802	-164.41022	3.9729869	148.31446	0.0017097289	94.623964	0.18491127	-46.655044	
5.2	0.92705992	-173.47413	4.6896761	134.01274	0.0015903806	86.849136	0.21226394	-48.467945	
5.3	0.89526278	176.75773	5.4665862	119.47658	0.0017033915	78.443384	0.23566066	-50.36758	
5.4	0.85798404	166.10979	6.306153	104.68284	0.0018977364	69.423438	0.25505606	-52.423349	
5.5	0.81532273	154.82451	7.1139193	89.801142	0.0019936996	62.400742	0.27173646	-54.536991	
5.6	0.7704771	142.75419	7.9521566	74.829079	0.0020131887	40.418879	0.28416224	-56.707763	
5.7	0.72399343	129.98182	8.7544205	59.969538	0.0018683241	30.599938	0.29360837	-58.880967	
5.8	0.68036749	116.73958	9.4581366	45.190718	0.0018129277	10.436918	0.29919494	-61.105716	
5.9	0.64048047	103.12782	10.162925	30.703199	0.0016411729	-5.2114008	0.3009819	-63.271935	
6	0.60790622	89.682452	10.70128	16.638323	0.0017252047	-11.618577	0.29933515	-65.349944	
6.1	0.58135743	76.487731	11.158722	3.015703	0.0014991465	-26.745897	0.29307787	-67.150264	
6.2	0.56126559	63.904414	11.534798	-10.247726	0.0014846044	-48.694826	0.28363129	-68.673622	
6.3	0.54652329	51.898102	11.927929	-22.970766	0.001745169	-71.409566	0.27111898	-69.599262	
6.4	0.5347075	40.974692	12.221873	-35.291122	0.0017885464	-85.918722	0.25661713	-70.22215	
6.5	0.52553279	30.981709	12.489474	-47.335501	0.00169929	-99.889101	0.24028694	-70.088774	
6.6	0.51668342	22.219638	12.603166	-58.754255	0.001830005	-111.36235	0.2230706	-69.235635	
6.7	0.50777691	14.345526	12.696557	-69.813317	0.0019673046	-124.17112	0.2066738	-67.342465	
6.8	0.49766291	7.2314596	12.757287	-80.394765	0.0023631265	-140.93197	0.19132249	-64.722466	
6.9	0.48633856	0.93622993	12.780901	-90.586665	0.0022007267	-149.14807	0.178132	-61.113845	
7	0.47236671	-4.7229778	12.942662	-100.59033	0.002367096	-158.47583	0.16756244	-56.691353	
7.1	0.45753503	-9.6451741	12.957423	-110.28281	0.0025178027	-166.05401	0.15972322	-51.82722	
7.2	0.44012423	-14.048983	12.982379	-119.54866	0.0025796457	-173.93046	0.15411372	-46.581983	
7.3	0.42121572	-18.003556	12.948943	-128.5651	0.0026967799	178.2772	0.15062111	-41.696351	
7.4	0.40117031	-21.543424	12.917632	-137.30192	0.002856848	171.36758	0.14974233	-37.14011	
7.5	0.37977924	-24.790143	12.904785	-145.79604	0.0028971183	169.74996	0.14939114	-33.349787	
7.6	0.35769106	-27.658247	12.963056	-154.18364	0.0029279494	159.12816	0.148773	-30.25352	
7.7	0.33456337	-30.25942	12.934555	-162.28474	0.0029946422	153.29456	0.14899225	-27.750122	
7.8	0.31131098	-32.627781	12.931988	-170.35778	0.0031147235	148.29032	0.14787511	-25.972367	
7.9	0.28776659	-34.812756	12.971782	-178.26388	0.0032173381	147.07232	0.14546528	-24.71675	
8	0.26479571	-36.816013	12.943596	173.97651	0.0032962784	139.76591	0.14249785	-23.89614	
8.1	0.2421562	-38.686098	12.94325	166.35726	0.0033188572	132.92736	0.13823336	-23.677021	
8.2	0.22013101	-40.739162	12.924335	158.88552	0.0032146265	129.84392	0.13202886	-24.467023	
8.3	0.19839906	-42.487989	12.925175	151.50397	0.0033924046	126.57957	0.12411769	-25.428731	
8.4	0.17854594	-44.141633	12.89906	144.37476	0.0033742042	122.31716	0.11484218	-27.046281	
8.5	0.16007816	-46.272279	12.882218	137.26275	0.0034360496	118.14725	0.10482948	-29.850599	
8.6	0.14381147	-48.724624	12.859351	130.36882	0.0035530574	117.24772	0.094596204	-33.387234	
8.7	0.12888405	-52.310421	12.783758	123.61987	0.0037358053	111.51617	0.084244943	-39.339071	
8.8	0.11557189	-56.650665	12.751768	116.96338	0.0037458074	108.76518	0.073828888	-47.13829	
8.9	0.10415509	-62.806297	12.751328	110.38585	0.0038081352	104.65625	0.063958646	-58.870469	
9	0.094845657	-70.676611	12.780051	103.83733	0.0038913216	101.24673	0.05836316	-75.114414	
9.1	0.088583843	-80.34816	12.812042	97.321777	0.0039106002	98.113877	0.057939881	-93.723052	
9.2	0.085118611	-90.981726	12.774622	90.94576	0.0040525088	93.80396	0.063800219	-112.00276	
9.3	0.085598609	-102.65173	12.755739	84.633163	0.0041020663	88.440063	0.075239338	-126.33139	
9.4	0.087936272	-112.64911	12.721397	78.406443	0.0041088932	84.624843	0.089884457	-137.05571	
9.5	0.093672856	-121.18705	12.69193	72.281392	0.0040957909	80.347792	0.10639197	-144.67423	
9.6	0.10123553	-128.10052	12.658514	66.223445	0.00420879	76.026145	0.12347882	-150.84347	
9.7	0.10990571	-133.29752	12.624224	60.225207	0.0042146804	72.750007	0.14110881	-154.8494	
9.8	0.11914882	-137.09438	12.609147	54.305532	0.0041791894	67.087432	0.15821582	-158.21591	
9.9	0.12913327	-139.64084	12.578115	48.464909	0.0040979197	62.430109	0.17561702	-160.59416	
10	0.13946397	-141.48374	12.55639	42.755277	0.0040820642	58.605477	0.19104406	-162.5469	
10.1	0.15043399	-142.3541	12.530017	37.141712	0.0043071083	57.915312	0.20619927	-164.0821	
10.2	0.16158844	-142.89703	12.484777	31.620405	0.0043152493	52.986905	0.21991937	-165.29939	
10.3	0.17336771	-142.80556	12.457537	26.15501	0.0042440802	50.03551	0.23209755	-166.20931	
10.4	0.18502329	-142.71617	12.439824	20.742963	0.0042333991	44.130663	0.24291893	-166.86535	
10.5	0.19698601	-142.20678	12.457434	15.309364	0.0042665303	39.712964	0.25237252	-167.38211	
10.6	0.20942693	-141.63533	12.455052	9.9898686	0.0042492893	36.621869	0.26103855	-167.6023	
10.7	0.2214988	-140.94569	12.439686	4.7395265	0.0041408645	32.714326	0.26796923	-167.76966	
10.8	0.23307979	-140.26825	12.418009	-0.46038718	0.004107076	29.273813	0.27350173	-167.76401	
10.9	0.24510136	-139.63163	12.418341	-5.5775251	0.0040039601	24.915375	0.27646354	-167.6523	
11	0.25661041	-138.96878	12.431639	-10.635416	0.004019381	21.341784	0.2785831	-167.48973	
11.1	0.26717854	-138.36315	12.439539	-15.670627	0.0041203307	19.458673	0.27818049	-167.13142	
11.2	0.27714261	-137.61616	12.49687	-20.735571	0.0040053543	14.885729	0.27690802	-166.59218	
11.3	0.28655855	-137.03723	12.461564	-25.673049	0.0040462809	11.946851	0.27453252	-166.05165	
11.4	0.29541276	-136.37298	12.451756	-30.580253	0.0040360463	7.6818469	0.27033691	-165.37173	
11.5	0.30374046	-135.82819	12.442749	-35.43509	0.0040532806	3.4634103	0.26425394	-164.57536	
11.6	0.31032951	-135.33184	12.443008	-40.25633	0.0039891707	-2.2661305	0.25668067	-163.66286	
11.7	0.31655036	-134.71649	12.543161	-45.177576	0.0040204776	-2.6506758	0.24739686	-162.57492	
11.8	0.3212482	-134.14957	12.586909	-50.053685	0.0039648326	-9.1742854	0.23668372	-161.39279	
11.9	0.32507875	-133.5872	12.558068	-54.818905	0.0039986177	-13.732605	0.22451104	-160.115	
12	0.32625744	-133.15542	12.54945	-59.535855	0.0039800231	-17.032755	0.21068485	-158.42369	
12.1	0.3276056	-132.48258	12.612398	-64.286599	0.0039922011	-21.031299	0.19614283	-156.43194	
12.2	0.32576161	-132.10506	12.613352	-69.023688	0.0038160281	-25.128388	0.17978403	-153.97415	
12.3	0.32393547	-131.28344	12.630613	-73.751862	0.0037574388	-28.368162	0.16301047	-150.75597	
12.4	0.31917577	-130.95672	12.723659	-78.572905	0.0039022655	-30.829505	0.1453246	-146.59464	
12.5	0.31386002	-130.13227	12.719998	-83.356285	0.003812285	-35.718385	0.12808506	-140.49537	
12.6	0.30718626	-129.1125	12.759205	-88.11249	0.0039357074	-41.04989	0.11260558	-131.8671	
12.7	0.2993788	-127.89927	12.815543	-92.856084	0.0037950336	-44.442784	0.10072301	-121.02992	
12.8	0.28943204	-126.07559	12.863133	-97.428179	0.0038415242	-50.260379	0.092792043	-106.77895	
12.9	0.2819551	-123.90039	12.917985	-102.00897	0.0037734889	-52.144869	0.092546044	-91.486552	
13	0.2757544	-121.82846	13.086724	-106.83491	0.0037690489	-58.00931	0.098867896	-77.00453	
13.1	0.27054141	-119.97541	13.173209	-112.00878	0.0037222392	-60.658081	0.1073816	-65.513364	
13.2	0.26427554	-118.3959	13.273329	-117.59499	0.0037695862	-63.290194	0.12000004	-54.27829	
13.3	0.25680308	-116.87892	13.21605	-122.67906	0.0038453005	-67.048559	0.14020042	-45.607421	
13.4	0.2466508	-114.98963	13.140098	-127.77715	0.0037072116	-68.927145	0.16314009	-40.099698	
13.5	0.23885319	-112.28924	13.097285	-132.77074	0.003847249	-73.640542	0.18918237	-36.480081	
13.6	0.23322509	-110.01973	13.065661	-137.63111	0.0039953512	-78.377614	0.21409487	-34.955585	
13.7	0.22873184	-107.96337	12.998437	-142.28393	0.0038659071	-84.672828	0.23669538	-34.450195	
13.8	0.22384241	-106.35786	12.943664	-146.90729	0.0037751618	-91.410795	0.25568315	-33.978257	
13.9	0.21799507	-104.85933	12.947409	-151.65624	0.0039294038	-93.348436	0.27392246	-33.70141	
14	0.21158963	-103.5899	12.866145	-156.14029	0.0038325535	-100.18639	0.28941545	-33.379102	
14.1	0.20467699	-102.73395	12.865766	-160.80038	0.0037928163	-106.64388	0.30308386	-33.2338	
14.2	0.19691607	-102.24146	12.836124	-165.3524	0.0037768874	-110.0106	0.31578898	-33.142115	
14.3	0.18697673	-101.76555	12.839302	-169.9384	0.0037438911	-114.1062	0.32649902	-32.992836	
14.4	0.17677984	-101.73126	12.834782	-174.46999	0.0037233948	-119.01759	0.33656247	-32.979954	
14.5	0.16513155	-101.7323	12.868038	-179.1491	0.0035775582	-123.6081	0.34391004	-32.949568	
14.6	0.15198758	-101.71815	12.834451	176.4315	0.0034595026	-128.4175	0.35045507	-32.937191	
14.7	0.13822045	-101.91715	12.85606	171.7498	0.0034113492	-131.3829	0.35459402	-32.817742	
14.8	0.1236319	-102.12942	12.840384	167.14412	0.0033795194	-134.63818	0.35779783	-32.8298	
14.9	0.1093265	-101.46785	12.823449	162.51296	0.0033288204	-138.96194	0.35989068	-32.778181	
15	0.096726791	-101.37217	12.815302	157.99045	0.0031120752	-141.77975	0.36182414	-32.741437	
15.1	0.085129182	-102.31673	12.780056	153.55098	0.0031513067	-141.16662	0.36233646	-32.85217	
15.2	0.07391075	-105.28036	12.79548	149.12849	0.0032384314	-142.80931	0.3613598	-33.059247	
15.3	0.061372756	-111.25283	12.785783	144.78165	0.0033333928	-147.27095	0.35960182	-33.39678	
15.4	0.048727085	-120.91095	12.85056	140.33873	0.0034211165	-148.44767	0.3561399	-33.731882	
15.5	0.037695266	-137.13255	12.853297	136.04596	0.0034456781	-151.54774	0.35095246	-34.221489	
15.6	0.032076958	-166.92431	12.919058	131.54088	0.0036288546	-157.08792	0.344981	-34.691893	
15.7	0.034993518	161.52203	12.947338	127.14343	0.0035649208	-160.01307	0.33766215	-35.244021	
15.8	0.046456393	138.96186	13.024092	122.49509	0.0037130435	-165.95361	0.33011465	-35.700363	
15.9	0.061700285	125.23565	13.10267	117.85457	0.0037592436	-169.55503	0.32157529	-36.446775	
16	0.077599815	116.84488	13.117681	113.26924	0.003695388	-173.73946	0.31274553	-37.250986	
16.1	0.094407667	111.45713	13.18834	108.68848	0.0037349806	-178.83142	0.30346946	-38.015232	
16.2	0.11091817	107.11511	13.201596	104.12214	0.0037503052	177.80934	0.29358985	-39.059792	
16.3	0.12671665	103.94474	13.251572	99.490949	0.0038708905	172.09855	0.28346561	-40.115447	
16.4	0.14275185	101.2373	13.265705	94.890343	0.0039714815	169.29014	0.27250837	-41.451598	
16.5	0.15784455	98.963334	13.295668	90.262117	0.0038859642	165.27752	0.26111095	-42.987385	
16.6	0.17202083	97.326917	13.29993	85.75903	0.00386767	160.81363	0.24975579	-44.405871	
16.7	0.18528634	95.638456	13.338047	81.209915	0.0040381972	156.30891	0.23773112	-46.224145	
16.8	0.19769237	94.425018	13.350758	76.765501	0.0040005567	152.9180	0.22534486	-48.287228	
16.9	0.20922352	93.240268	13.380533	72.372794	0.0041029941	149.52649	0.21358871	-50.643216	
17	0.21981168	92.558956	13.419433	68.109919	0.0042292382	143.97682	0.20135471	-53.112705	
17.1	0.23056547	91.850389	13.492305	63.821225	0.0041612078	140.28302	0.18928448	-55.889254	
17.2	0.24134252	91.172368	13.614566	59.498551	0.0042145129	134.21205	0.17796271	-59.05017	
17.3	0.25189518	90.343669	13.718042	54.982005	0.0042214446	132.7203	0.1664301	-62.667186	
17.4	0.26230851	89.438324	13.853762	50.266154	0.0043458593	126.89795	0.15504426	-67.215213	
17.5	0.2708751	88.253955	13.907732	45.493824	0.0043877017	124.12192	0.14468633	-71.331331	
17.6	0.27711035	87.054394	13.970439	40.787836	0.0044960666	120.79794	0.13580485	-76.837512	
17.7	0.28235023	85.613114	14.017049	36.116692	0.0045399657	115.24029	0.12791042	-82.604724	
17.8	0.285315	84.138023	14.103344	31.400716	0.0046601105	111.75902	0.12247425	-89.087132	
17.9	0.28675916	82.722511	14.144956	26.733435	0.0046016395	105.91393	0.11731279	-95.84091	
18	0.28591218	81.382803	14.171835	22.08926	0.0046088888	102.91416	0.11421135	-102.38326	
18.1	0.28409034	80.120707	14.234294	17.558401	0.0046662046	98.890201	0.11221051	-108.82378	
18.2	0.27974924	78.952066	14.276267	12.980654	0.0048100974	93.790454	0.11225583	-115.45583	
18.3	0.27453888	77.686197	14.365836	8.4084708	0.0049243574	89.428271	0.11409602	-121.21766	
18.4	0.26658952	76.345066	14.442917	3.8205589	0.0049657548	85.924459	0.11674464	-126.72239	
18.5	0.25761561	74.917664	14.55307	-0.81345282	0.0052125048	81.025947	0.12075056	-131.46468	
18.6	0.2465811	73.401474	14.609263	-5.4462884	0.0051645041	78.405412	0.12494025	-135.15919	
18.7	0.23491442	71.67225	14.687006	-10.111987	0.0051791463	74.216413	0.12933434	-138.59141	
18.8	0.22054655	69.627869	14.796444	-14.815068	0.0052691132	68.708432	0.1351991	-140.99363	
18.9	0.20500019	67.097325	14.899065	-19.599571	0.0052057544	64.961829	0.14137637	-142.83026	
19	0.18738963	64.072751	15.016069	-24.439111	0.005262638	60.734789	0.1474287	-143.90312	
19.1	0.16823146	60.636812	15.089285	-29.302861	0.0055325798	55.346439	0.15447068	-144.44082	
19.2	0.1468059	55.942675	15.184378	-34.173978	0.0056544105	50.772822	0.16226051	-144.55904	
19.3	0.12344451	49.742855	15.251727	-39.117025	0.0055529543	46.441475	0.1698621	-144.1194	
19.4	0.10029966	40.353492	15.319819	-44.191966	0.0055141554	43.229134	0.17970844	-143.64797	
19.5	0.078285374	25.666632	15.342374	-49.264587	0.0059101131	38.225013	0.18894349	-143.08278	
19.6	0.063965415	1.3674322	15.364357	-54.399896	0.0058972109	32.649404	0.19933265	-141.90904	
19.7	0.06233777	-29.920317	15.35525	-59.537299	0.0057510291	28.963201	0.21018957	-141.19595	
19.8	0.076170604	-56.446623	15.321799	-64.674366	0.0058295046	25.204034	0.22262245	-140.33253	
19.9	0.099699744	-74.678717	15.25392	-69.84976	0.0060930026	20.26134	0.23707225	-139.32384	
20	0.12867234	-86.471265	15.175069	-74.963577	0.0059755465	17.009723	0.251285	-138.38265	
20.1	0.15814411	-94.219264	15.031785	-79.946966	0.0059264511	11.477834	0.26725853	-137.62288	
20.2	0.18936862	-100.19233	14.881429	-84.894586	0.0059712651	7.3545141	0.28309233	-137.03027	
20.3	0.21863741	-104.66286	14.708876	-89.691144	0.0059779634	4.0034565	0.29783957	-136.36072	
20.4	0.24676927	-108.49582	14.550739	-94.457329	0.0060675254	-0.76272927	0.31220734	-136.02346	
20.5	0.273986	-111.65597	14.398578	-99.096494	0.0060868012	-6.4894942	0.32679903	-135.82703	
20.6	0.29831186	-114.21572	14.191904	-103.57578	0.0059320655	-8.6415817	0.33931705	-135.21365	
20.7	0.32195736	-116.54584	14.028206	-108.00037	0.006042257	-13.361374	0.35114106	-134.56807	
20.8	0.34358882	-118.54752	13.857362	-112.2947	0.0060989548	-18.643005	0.36236154	-134.01593	
20.9	0.36237715	-120.1892	13.696929	-116.45615	0.0060273896	-22.634447	0.37326993	-133.06228	
21	0.37803117	-121.65181	13.539376	-120.50491	0.0060775584	-27.422405	0.3836262	-131.98793	
21.1	0.39273421	-122.963	13.410274	-124.49686	0.0060675201	-29.318257	0.39445267	-131.05736	
21.2	0.40563074	-124.07047	13.311494	-128.40337	0.0060310312	-35.595967	0.40564023	-129.98094	
21.3	0.41692589	-125.04046	13.246986	-132.22976	0.0061612325	-39.005362	0.41743581	-128.78097	
21.4	0.42749455	-125.920	13.231236	-136.13167	0.0061181917	-45.786971	0.42783314	-127.65235	
21.5	0.43562263	-126.69027	13.202495	-140.03423	0.0061325435	-49.455727	0.43817288	-126.7679	
21.6	0.44264605	-127.61447	13.209864	-144.01283	0.0059117644	-56.907034	0.45039103	-126.00208	
21.7	0.44776728	-128.77525	13.273826	-148.03213	0.0057650208	-60.842125	0.4606345	-125.54468	
21.8	0.45011383	-129.85401	13.32774	-152.08118	0.0057472756	-65.940677	0.46939399	-124.88922	
21.9	0.44951848	-131.22926	13.46172	-156.34662	0.0055020851	-71.468023	0.47710261	-124.72462	
22	0.44554822	-132.50019	13.587899	-160.77916	0.0052904646	-74.36576	0.48154821	-124.50215	
22.1	0.43762243	-134.01638	13.710349	-165.48224	0.0050200634	-79.000345	0.48299307	-124.62055	
22.2	0.42565535	-135.43764	13.815323	-170.36796	0.0048302059	-82.944957	0.48035088	-124.74172	
22.3	0.41022235	-136.95327	13.927996	-175.44196	0.0045498666	-85.415458	0.47455968	-125.02888	
22.4	0.39085806	-138.29929	14.010112	179.47374	0.004483218	-89.955864	0.46633023	-125.05396	
22.5	0.36845638	-139.46607	14.077623	174.27256	0.0043922907	-91.739842	0.45721402	-124.90621	
22.6	0.34220498	-140.4564	14.151417	168.90258	0.0040931841	-92.592517	0.44306252	-124.6594	
22.7	0.31380824	-141.03088	14.158446	163.44226	0.0041645218	-93.078343	0.42985917	-124.12465	
22.8	0.28464941	-141.44842	14.134675	157.90946	0.0041342173	-94.335841	0.41498225	-123.66706	
22.9	0.25530372	-141.21396	14.07413	152.44966	0.0041975231	-96.668241	0.40038607	-122.98427	
23	0.22597608	-140.5605	14.013856	147.05978	0.0042260365	-99.634118	0.38514804	-122.22747	
23.1	0.19713189	-139.30027	14.01306	141.67153	0.0044499686	-104.85217	0.36900822	-121.37787	
23.2	0.16911091	-138.42866	13.993153	136.24152	0.0045437211	-109.23648	0.35202229	-120.40437	
23.3	0.13782471	-137.38858	13.977473	130.55544	0.0045029919	-116.13216	0.33243822	-119.31246	
23.4	0.10413291	-135.13362	13.947694	124.79637	0.0045193202	-121.33483	0.31288089	-117.81311	
23.5	0.069282541	-127.91411	13.856171	118.99225	0.0044735758	-124.95835	0.29273084	-115.98498	
23.6	0.037545993	-104.14362	13.783364	113.18735	0.0042841125	-129.01585	0.27277478	-113.86071	
23.7	0.03339537	-41.325041	13.666175	107.40953	0.0041288941	-132.10457	0.25410332	-111.51714	
23.8	0.059894754	-9.437497	13.569393	101.69222	0.0040631491	-134.04798	0.23588959	-109.04606	
23.9	0.089994132	0.76994491	13.478218	96.010266	0.004023029	-136.36003	0.21855915	-105.93942	
24	0.12242038	4.8279563	13.421723	90.215682	0.0040200207	-136.69512	0.20333049	-102.90745	
24.1	0.15222299	7.6962479	13.33826	84.504536	0.004094419	-138.65496	0.18978954	-101.03394	
24.2	0.18336142	10.50918	13.291523	78.483728	0.0044497705	-142.53757	0.17063202	-100.09799	
24.3	0.21644843	11.258665	13.229907	72.305692	0.0046598998	-144.52401	0.14879372	-98.195703	
24.4	0.25077249	11.568823	13.084301	66.069771	0.0047320317	-152.94333	0.12482375	-93.861609	
24.5	0.28229946	10.545952	12.938834	59.911366	0.005068563	-156.88713	0.10249332	-87.624917	
24.6	0.31150317	8.959690	12.735271	53.845487	0.0048573861	-163.62311	0.084551297	-78.034882	
24.7	0.33503516	7.1984271	12.546759	47.958433	0.0049460838	-168.40867	0.069092459	-65.955373	
24.8	0.35360606	5.4502062	12.357097	42.158167	0.0049503248	-172.43413	0.058212807	-50.396269	
24.9	0.36651593	3.6206913	12.220814	36.460441	0.004850835	-178.88736	0.052716932	-30.035066	
25	0.37469175	1.9715939	12.086829	30.697452	0.0046653712	178.06875	0.051550851	-7.3827522	
25.1	0.37741726	0.87677886	11.973848	24.858036	0.0044025928	176.02424	0.056683366	14.350337	
25.2	0.37712101	-0.0089189005	11.842733	18.854022	0.0041615297	174.43542	0.071131396	33.359331	
25.3	0.37602532	-0.47322025	11.684158	12.797595	0.0041560789	176.7241	0.091865034	44.082739	
25.4	0.37696573	-0.62939928	11.475933	6.7105892	0.0047302913	-177.90591	0.11932386	48.691194	
25.5	0.37756514	-1.4544765	11.206912	1.0747573	0.0051092776	-178.24424	0.1407129	48.713474	
25.6	0.37441252	-3.2111801	10.970188	-4.1346408	0.0057293488	175.39606	0.15511112	47.776623	
25.7	0.3633063	-4.9199702	10.807865	-9.1613927	0.0061015539	172.49911	0.16162107	48.947678	
25.8	0.35094692	-6.1595489	10.681407	-13.902055	0.0065198265	169.39824	0.16267637	50.220911	
25.9	0.33935816	-7.4845454	10.651126	-18.424113	0.0073911814	169.07179	0.15755697	54.42985	
26	0.32896201	-9.7693737	10.758772	-23.110163	0.00842313	164.39744	0.15240683	63.128178	
26.1	0.31689686	-14.202461	10.97046	-28.529452	0.0095285475	155.87855	0.162518	76.020881	
26.2	0.295321	-20.814983	11.162891	-34.955525	0.010485934	146.91027	0.19259821	84.235477	
26.3	0.26127829	-28.621703	11.230631	-41.798971	0.010945657	138.11023	0.22704864	87.594181	
26.4	0.22145596	-37.509966	11.222922	-48.714386	0.011200048	129.23161	0.25775788	88.785154	
26.5	0.17729578	-48.692668	11.146221	-55.62742	0.011214724	121.55998	0.28418123	89.058814	
26.6	0.13514081	-63.320732	11.004127	-62.547846	0.010820322	115.62385	0.3081253	88.632405	
26.7	0.10507832	-84.71868	10.805449	-69.166291	0.010549059	112.80991	0.32220652	87.49027	
26.8	0.098667672	-113.39064	10.59157	-75.395067	0.010468345	112.12813	0.32807546	87.662485	
26.9	0.12069943	-140.65346	10.428733	-81.439876	0.011407732	110.04802	0.3303973	89.072534	
27	0.16117018	-160.10114	10.285373	-87.665345	0.012866285	106.09775	0.33839031	91.37672	
27.1	0.20760288	-174.45616	10.153198	-94.153541	0.013815673	100.49996	0.35051472	93.103768	
27.2	0.25810461	175.58104	9.9728281	-100.56097	0.014217608	93.800834	0.36238605	94.601566	
27.3	0.30705308	167.78393	9.7881484	-106.96298	0.014600334	88.418219	0.37201854	95.361459	
27.4	0.3552433	161.72931	9.5713869	-113.34465	0.015062464	82.811354	0.37912433	95.961123	
27.5	0.40087559	156.84632	9.3485294	-119.74253	0.015643604	77.804066	0.38433979	96.526588	
27.6	0.44561048	151.93441	9.129617	-126.16892	0.01594307	71.198278	0.38794707	97.156313	
27.7	0.48657537	147.47333	8.8846241	-132.76784	0.0163185	65.49826	0.39199041	97.05433	
27.8	0.52472912	143.92362	8.6381012	-139.15448	0.017205996	60.590718	0.39416322	97.346898	
27.9	0.55772477	140.12398	8.3610649	-145.63063	0.017368325	54.063068	0.3967545	97.107863	
28	0.58281269	136.84269	8.076335	-151.88612	0.017627274	46.922679	0.39374983	97.114851	
28.1	0.60705513	133.39219	7.7837486	-158.2066	0.017445336	39.547001	0.38894795	96.799024	
28.2	0.6275838	129.7276	7.5026793	-164.60899	0.017488947	33.436705	0.38052423	96.606273	
28.3	0.63917824	126.17039	7.1790565	-170.863	0.017299461	28.935201	0.37061444	96.572817	
28.4	0.64283565	122.79901	6.8550939	-177.11158	0.017122209	22.970922	0.36062637	96.376412	
28.5	0.64170432	119.72084	6.5302389	176.91115	0.016616472	17.505445	0.34780759	96.810143	
28.6	0.63749188	117.36852	6.2207407	171.17527	0.01634869	10.054972	0.33457568	97.512345	
28.7	0.63089131	115.04287	5.9361372	165.5441	0.015650184	2.3506014	0.3227413	99.327632	
28.8	0.62319077	112.99431	5.6517574	160.01887	0.014987845	-4.8915313	0.31499055	101.4214	
28.9	0.61382694	111.02419	5.3825923	154.62693	0.014307335	-12.951272	0.31163023	103.49773	
29	0.60433225	109.21997	5.1312476	149.33198	0.012919177	-19.872217	0.31296158	105.1055	
29.1	0.59764801	107.31872	4.9034545	144.24506	0.011380452	-26.969243	0.31388321	106.39496	
29.2	0.59025944	105.26088	4.6970205	139.22104	0.0095067832	-32.231465	0.31566036	107.45418	
29.3	0.58461587	102.92926	4.5154497	134.13152	0.0079238366	-37.685378	0.31793971	107.86367	
29.4	0.57891778	100.31786	4.3495104	128.84996	0.0063511861	-39.899337	0.32062019	107.8563	
29.5	0.5723929	97.078898	4.194771	123.42362	0.0053192063	-35.292782	0.32222665	107.36943	
29.6	0.56268907	93.703585	4.0442282	117.8248	0.0046115538	-26.367402	0.32470934	106.37277	
29.7	0.55196867	89.695473	3.8914347	112.15233	0.0043703599	-24.237568	0.32258453	104.94942	
29.8	0.54265206	85.493448	3.7466607	106.34394	0.0039131155	-21.515961	0.32364233	102.92706	
29.9	0.53383429	80.692241	3.6024526	100.41527	0.003882957	-24.580326	0.32108351	100.52674	
30	0.52532644	76.03538	3.461294	94.45320	0.0035802839	-32.3368	0.3210933	97.58351	
